version 3
run General-0-20230921-18:16:39-45176
attr configname General
attr datetime 20230921-18:16:39
attr datetimef 20230921-181639
attr experiment General
attr inifile babel.ini
attr iterationvars ""
attr iterationvarsd ""
attr iterationvarsf ""
attr measurement ""
attr network BabelShowcase
attr processid 45176
attr repetition 0
attr replication #0
attr resultdir results
attr runnumber 0
attr seedset 0
config image-path ../../../omnetpp-6.0.1/samples/inet4.5/images
config network BabelShowcase
config scheduler-class inet::RealTimeScheduler
config *.visualizer.interfaceTableVisualizer[0].displayInterfaceTables true
config *.visualizer.mediumVisualizer[0].displayCommunicationRanges true
config *.visualizer.numDataLinkVisualizers 2
config *.visualizer.*.displaySignals true
config *.visualizer.dataLinkVisualizer[0].displayLinks true
config *.visualizer.dataLinkVisualizer[0].lineColor "\"red1\""
config *.visualizer.dataLinkVisualizer[0].packetFilter "\"*\""
config *.*.wlan[*].mac.fcsMode "\"computed\""
config **.crcMode "\"declared\""
config *.*.wlan[*].radio.transmitter.power 2mW
config *.host*.wlan[0].typename ExtUpperIeee80211Interface
config *.host*.wlan[0].copyConfiguration "\"copyFromExt\""
config *.host0.wlan[0].device "\"taps1-eth2\""
config *.host1.wlan[0].device "\"taps2-eth2\""

vector 0 BabelShowcase.host0.wlan[0].mac.dcf frameSequenceActive:vector ETV
attr autoWarmupFilter false
attr interpolationmode sample-hold
attr recordingmode vector
attr source warmup(count(frameSequenceStarted)-count(frameSequenceFinished))
attr title "frame sequence active"
vector 1 BabelShowcase.host0.wlan[0].mac.dcf.channelAccess.inProgressFrames queueLength:vector ETV
attr autoWarmupFilter false
attr interpolationmode sample-hold
attr recordingmode vector
attr source "warmup(count(packetEnqueued) - count(packetDequeued))"
attr title "queue length"
vector 2 BabelShowcase.host0.wlan[0].mac.dcf.channelAccess.contention backoffActive:vector ETV
attr autoWarmupFilter false
attr interpolationmode sample-hold
attr recordingmode vector
attr source warmup(count(backoffStarted)-count(backoffStopped))
attr title "backoff active"
vector 3 BabelShowcase.host0.udp passedUpPk:vector(count) ETV
attr interpolationmode none
attr recordingmode vector(count)
attr source packetSentToUpper
attr title "packets passed up, count"
vector 4 BabelShowcase.host0.udp droppedPkWrongPort:vector(count) ETV
attr interpolationmode none
attr recordingmode vector(count)
attr source packetDropReasonIsNoPortFound(packetDropped)
attr title "packets dropped (wrong port), count"
vector 5 BabelShowcase.host0.udp droppedPkBadChecksum:vector(count) ETV
attr interpolationmode none
attr recordingmode vector(count)
attr source packetDropReasonIsIncorrectlyReceived(packetDropped)
attr title "packets dropped (checksum error), count"
vector 6 BabelShowcase.host1.wlan[0].mac.dcf frameSequenceActive:vector ETV
attr autoWarmupFilter false
attr interpolationmode sample-hold
attr recordingmode vector
attr source warmup(count(frameSequenceStarted)-count(frameSequenceFinished))
attr title "frame sequence active"
vector 7 BabelShowcase.host1.wlan[0].mac.dcf.channelAccess.inProgressFrames queueLength:vector ETV
attr autoWarmupFilter false
attr interpolationmode sample-hold
attr recordingmode vector
attr source "warmup(count(packetEnqueued) - count(packetDequeued))"
attr title "queue length"
vector 8 BabelShowcase.host1.wlan[0].mac.dcf.channelAccess.contention backoffActive:vector ETV
attr autoWarmupFilter false
attr interpolationmode sample-hold
attr recordingmode vector
attr source warmup(count(backoffStarted)-count(backoffStopped))
attr title "backoff active"
vector 9 BabelShowcase.host1.udp passedUpPk:vector(count) ETV
attr interpolationmode none
attr recordingmode vector(count)
attr source packetSentToUpper
attr title "packets passed up, count"
vector 10 BabelShowcase.host1.udp droppedPkWrongPort:vector(count) ETV
attr interpolationmode none
attr recordingmode vector(count)
attr source packetDropReasonIsNoPortFound(packetDropped)
attr title "packets dropped (wrong port), count"
vector 11 BabelShowcase.host1.udp droppedPkBadChecksum:vector(count) ETV
attr interpolationmode none
attr recordingmode vector(count)
attr source packetDropReasonIsIncorrectlyReceived(packetDropped)
attr title "packets dropped (checksum error), count"
vector 12 BabelShowcase.host0.wlan[0].radio radioMode:vector ETV
attr interpolationmode sample-hold
attr recordingmode vector
attr source radioModeChanged
attr title "Radio mode"
vector 13 BabelShowcase.host0.wlan[0].radio radioChannel:vector ETV
attr interpolationmode sample-hold
attr recordingmode vector
attr source radioChannelChanged
attr title "Radio channel"
vector 14 BabelShowcase.host1.wlan[0].radio radioMode:vector ETV
attr interpolationmode sample-hold
attr recordingmode vector
attr source radioModeChanged
attr title "Radio mode"
vector 15 BabelShowcase.host1.wlan[0].radio radioChannel:vector ETV
attr interpolationmode sample-hold
attr recordingmode vector
attr source radioChannelChanged
attr title "Radio channel"
vector 16 BabelShowcase.host0.wlan[0].radio receptionState:vector ETV
attr interpolationmode sample-hold
attr recordingmode vector
attr source receptionStateChanged
attr title "Radio reception state"
vector 17 BabelShowcase.host0.wlan[0].mac.dcf.channelAccess.contention stateChanged:vector ETV
attr enum IDLE,DEFER,IFS_AND_BACKOFF
attr interpolationmode none
attr recordingmode vector
attr title "contention state changed"
attr type enum
vector 18 BabelShowcase.host1.wlan[0].radio receptionState:vector ETV
attr interpolationmode sample-hold
attr recordingmode vector
attr source receptionStateChanged
attr title "Radio reception state"
vector 19 BabelShowcase.host1.wlan[0].mac.dcf.channelAccess.contention stateChanged:vector ETV
attr enum IDLE,DEFER,IFS_AND_BACKOFF
attr interpolationmode none
attr recordingmode vector
attr title "contention state changed"
attr type enum
vector 20 BabelShowcase.host0.wlan[0].mac.dcf.recoveryProcedure contentionWindowChanged:vector ETV
attr interpolationmode sample-hold
attr recordingmode vector
attr title "contention window"
vector 21 BabelShowcase.host1.wlan[0].mac.dcf.recoveryProcedure contentionWindowChanged:vector ETV
attr interpolationmode sample-hold
attr recordingmode vector
attr title "contention window"
vector 22 BabelShowcase.host0.wlan[0].tap packetReceived:vector(packetBytes) ETV
attr interpolationmode none
attr recordingmode vector(packetBytes)
attr source packetReceived
attr title "packets received, packetBytes"
vector 23 BabelShowcase.host0.wlan[0].tap packetSentFromLower:vector(packetBytes) ETV
attr interpolationmode none
attr recordingmode vector(packetBytes)
attr source packetSentToLower
attr title "packets sent to higher layer, packetBytes"
vector 24 BabelShowcase.host1.wlan[0].tap packetReceived:vector(packetBytes) ETV
attr interpolationmode none
attr recordingmode vector(packetBytes)
attr source packetReceived
attr title "packets received, packetBytes"
vector 25 BabelShowcase.host1.wlan[0].tap packetSentFromLower:vector(packetBytes) ETV
attr interpolationmode none
attr recordingmode vector(packetBytes)
attr source packetSentToLower
attr title "packets sent to higher layer, packetBytes"
vector 26 BabelShowcase.host0.wlan[0].mac packetReceivedFromUpper:vector(packetBytes) ETV
attr interpolationmode none
attr recordingmode vector(packetBytes)
attr title "packets received from upper layer, packetBytes"
vector 27 BabelShowcase.host0.wlan[0].mac.dcf.channelAccess.pendingQueue incomingPacketLengths:vector ETV
attr interpolationmode none
attr recordingmode vector
attr source packetLength(packetPushStarted)
attr title "incoming packet lengths"
attr unit b
vector 28 BabelShowcase.host0.wlan[0].mac.dcf.channelAccess.pendingQueue incomingDataRate:vector ETV
attr interpolationmode linear
attr recordingmode vector
attr source throughput(packetPushStarted)
attr title "incoming datarate"
attr unit bps
vector 29 BabelShowcase.host0.wlan[0].mac.dcf.channelAccess.pendingQueue queueLength:vector ETV
attr autoWarmupFilter false
attr interpolationmode sample-hold
attr recordingmode vector
attr source "warmup(atomic(constant0(packetPushEnded) + count(packetPushStarted) - count(packetPulled) - count(packetRemoved) - count(packetDropped)))"
attr title "queue length"
attr unit pk
vector 30 BabelShowcase.host0.wlan[0].mac.dcf.channelAccess.pendingQueue queueBitLength:vector ETV
attr autoWarmupFilter false
attr interpolationmode sample-hold
attr recordingmode vector
attr source "warmup(atomic(constant0(packetPushEnded) + sum(packetLength(packetPushStarted)) - sum(packetLength(packetPulled)) - sum(packetLength(packetRemoved)) - sum(packetLength(packetDropped))))"
attr title "queue bit length"
attr unit b
vector 31 BabelShowcase.host0.wlan[0].mac.dcf.channelAccess.contention backoffPeriodGenerated:vector ETV
attr interpolationmode none
attr recordingmode vector
attr title "backoff periods"
vector 32 BabelShowcase.host1.wlan[0].mac packetReceivedFromUpper:vector(packetBytes) ETV
attr interpolationmode none
attr recordingmode vector(packetBytes)
attr title "packets received from upper layer, packetBytes"
vector 33 BabelShowcase.host1.wlan[0].mac.dcf.channelAccess.pendingQueue incomingPacketLengths:vector ETV
attr interpolationmode none
attr recordingmode vector
attr source packetLength(packetPushStarted)
attr title "incoming packet lengths"
attr unit b
vector 34 BabelShowcase.host1.wlan[0].mac.dcf.channelAccess.pendingQueue incomingDataRate:vector ETV
attr interpolationmode linear
attr recordingmode vector
attr source throughput(packetPushStarted)
attr title "incoming datarate"
attr unit bps
vector 35 BabelShowcase.host1.wlan[0].mac.dcf.channelAccess.pendingQueue queueLength:vector ETV
attr autoWarmupFilter false
attr interpolationmode sample-hold
attr recordingmode vector
attr source "warmup(atomic(constant0(packetPushEnded) + count(packetPushStarted) - count(packetPulled) - count(packetRemoved) - count(packetDropped)))"
attr title "queue length"
attr unit pk
vector 36 BabelShowcase.host1.wlan[0].mac.dcf.channelAccess.pendingQueue queueBitLength:vector ETV
attr autoWarmupFilter false
attr interpolationmode sample-hold
attr recordingmode vector
attr source "warmup(atomic(constant0(packetPushEnded) + sum(packetLength(packetPushStarted)) - sum(packetLength(packetPulled)) - sum(packetLength(packetRemoved)) - sum(packetLength(packetDropped))))"
attr title "queue bit length"
attr unit b
vector 37 BabelShowcase.host1.wlan[0].mac.dcf.channelAccess.contention backoffPeriodGenerated:vector ETV
attr interpolationmode none
attr recordingmode vector
attr title "backoff periods"
vector 38 BabelShowcase.host0.wlan[0].mac.dcf.channelAccess.pendingQueue queueingTime:vector ETV
attr interpolationmode none
attr recordingmode vector
attr source queueingTime(packetPulled)
attr title "queueing times"
attr unit s
vector 39 BabelShowcase.host0.wlan[0].mac.dcf.channelAccess.pendingQueue outgoingPacketLengths:vector ETV
attr interpolationmode none
attr recordingmode vector
attr source packetLength(packetPulled)
attr title "outgoing packet lengths"
attr unit b
vector 40 BabelShowcase.host0.wlan[0].mac.dcf.channelAccess.pendingQueue outgoingDataRate:vector ETV
attr interpolationmode linear
attr recordingmode vector
attr source throughput(packetPulled)
attr title "outgoing datarate"
attr unit bps
vector 41 BabelShowcase.host0.wlan[0].mac.dcf datarateSelected:vector ETV
attr interpolationmode none
attr recordingmode vector
attr title "datarates selected"
vector 42 BabelShowcase.host0.wlan[0].mac packetSentToLower:vector(packetBytes) ETV
attr interpolationmode none
attr recordingmode vector(packetBytes)
attr title "packets sent to lower layer, packetBytes"
vector 43 BabelShowcase.host0.wlan[0].radio transmissionState:vector ETV
attr interpolationmode sample-hold
attr recordingmode vector
attr source transmissionStateChanged
attr title "Radio transmission state"
vector 44 BabelShowcase.host1.wlan[0].mac.dcf.channelAccess.pendingQueue queueingTime:vector ETV
attr interpolationmode none
attr recordingmode vector
attr source queueingTime(packetPulled)
attr title "queueing times"
attr unit s
vector 45 BabelShowcase.host1.wlan[0].mac.dcf.channelAccess.pendingQueue outgoingPacketLengths:vector ETV
attr interpolationmode none
attr recordingmode vector
attr source packetLength(packetPulled)
attr title "outgoing packet lengths"
attr unit b
vector 46 BabelShowcase.host1.wlan[0].mac.dcf.channelAccess.pendingQueue outgoingDataRate:vector ETV
attr interpolationmode linear
attr recordingmode vector
attr source throughput(packetPulled)
attr title "outgoing datarate"
attr unit bps
vector 47 BabelShowcase.host1.wlan[0].mac.dcf datarateSelected:vector ETV
attr interpolationmode none
attr recordingmode vector
attr title "datarates selected"
vector 48 BabelShowcase.host1.wlan[0].mac packetSentToLower:vector(packetBytes) ETV
attr interpolationmode none
attr recordingmode vector(packetBytes)
attr title "packets sent to lower layer, packetBytes"
vector 49 BabelShowcase.host1.wlan[0].radio transmissionState:vector ETV
attr interpolationmode sample-hold
attr recordingmode vector
attr source transmissionStateChanged
attr title "Radio transmission state"
vector 50 BabelShowcase.host0.wlan[0].mac.dcf packetSentToPeer:vector(packetBytes) ETV
attr interpolationmode none
attr recordingmode vector(packetBytes)
attr title "packets sent, packetBytes"
vector 51 BabelShowcase.host0.wlan[0].mac.dcf packetSentToPeerMulticast:vector(packetBytes) ETV
attr interpolationmode none
attr recordingmode vector(packetBytes)
attr source ieee80211Multicast(packetSentToPeer)
attr title "packets sent: multicast, packetBytes"
vector 52 BabelShowcase.host0.wlan[0].mac.dcf packetSentToPeerWithoutRetry:vector(packetBytes) ETV
attr interpolationmode none
attr recordingmode vector(packetBytes)
attr source ieee80211NotRetry(packetSentToPeer)
attr title "packets sent: without retry, packetBytes"
vector 53 BabelShowcase.host0.wlan[0].mac.dcf.channelAccess.inProgressFrames queueingTime:vector ETV
attr interpolationmode none
attr recordingmode vector
attr source queueingTime(packetDequeued)
attr title "queueing times"
vector 54 BabelShowcase.host1.wlan[0].mac.dcf packetSentToPeer:vector(packetBytes) ETV
attr interpolationmode none
attr recordingmode vector(packetBytes)
attr title "packets sent, packetBytes"
vector 55 BabelShowcase.host1.wlan[0].mac.dcf packetSentToPeerMulticast:vector(packetBytes) ETV
attr interpolationmode none
attr recordingmode vector(packetBytes)
attr source ieee80211Multicast(packetSentToPeer)
attr title "packets sent: multicast, packetBytes"
vector 56 BabelShowcase.host1.wlan[0].mac.dcf packetSentToPeerWithoutRetry:vector(packetBytes) ETV
attr interpolationmode none
attr recordingmode vector(packetBytes)
attr source ieee80211NotRetry(packetSentToPeer)
attr title "packets sent: without retry, packetBytes"
vector 57 BabelShowcase.host1.wlan[0].mac.dcf.channelAccess.inProgressFrames queueingTime:vector ETV
attr interpolationmode none
attr recordingmode vector
attr source queueingTime(packetDequeued)
attr title "queueing times"
vector 58 BabelShowcase.host0.wlan[0].mac packetReceivedFromLower:vector(packetBytes) ETV
attr interpolationmode none
attr recordingmode vector(packetBytes)
attr title "packets received from lower layer, packetBytes"
vector 59 BabelShowcase.host0.wlan[0].mac.dcf packetReceivedFromPeer:vector(packetBytes) ETV
attr interpolationmode none
attr recordingmode vector(packetBytes)
attr title "packets received, packetBytes"
vector 60 BabelShowcase.host0.wlan[0].mac.dcf packetReceivedFromPeerMulticast:vector(packetBytes) ETV
attr interpolationmode none
attr recordingmode vector(packetBytes)
attr source ieee80211Multicast(packetReceivedFromPeer)
attr title "packets received: multicast, packetBytes"
vector 61 BabelShowcase.host0.wlan[0].mac.dcf packetReceivedFromPeerWithoutRetry:vector(packetBytes) ETV
attr interpolationmode none
attr recordingmode vector(packetBytes)
attr source ieee80211NotRetry(packetReceivedFromPeer)
attr title "packets received: without retry, packetBytes"
vector 62 BabelShowcase.host0.wlan[0].mac packetSentToUpper:vector(packetBytes) ETV
attr interpolationmode none
attr recordingmode vector(packetBytes)
attr title "packets sent to upper layer, packetBytes"
vector 63 BabelShowcase.host0.wlan[0].tap packetReceivedFromLower:vector(packetBytes) ETV
attr interpolationmode none
attr recordingmode vector(packetBytes)
attr source packetReceivedFromLower
attr title "packets received from higher layer, packetBytes"
vector 64 BabelShowcase.host0.wlan[0].tap packetSent:vector(packetBytes) ETV
attr interpolationmode none
attr recordingmode vector(packetBytes)
attr source packetSent
attr title "packets sent, packetBytes"
vector 65 BabelShowcase.host1.wlan[0].mac packetReceivedFromLower:vector(packetBytes) ETV
attr interpolationmode none
attr recordingmode vector(packetBytes)
attr title "packets received from lower layer, packetBytes"
vector 66 BabelShowcase.host1.wlan[0].mac.dcf packetReceivedFromPeer:vector(packetBytes) ETV
attr interpolationmode none
attr recordingmode vector(packetBytes)
attr title "packets received, packetBytes"
vector 67 BabelShowcase.host1.wlan[0].mac.dcf packetReceivedFromPeerMulticast:vector(packetBytes) ETV
attr interpolationmode none
attr recordingmode vector(packetBytes)
attr source ieee80211Multicast(packetReceivedFromPeer)
attr title "packets received: multicast, packetBytes"
vector 68 BabelShowcase.host1.wlan[0].mac.dcf packetReceivedFromPeerWithoutRetry:vector(packetBytes) ETV
attr interpolationmode none
attr recordingmode vector(packetBytes)
attr source ieee80211NotRetry(packetReceivedFromPeer)
attr title "packets received: without retry, packetBytes"
vector 69 BabelShowcase.host1.wlan[0].mac packetSentToUpper:vector(packetBytes) ETV
attr interpolationmode none
attr recordingmode vector(packetBytes)
attr title "packets sent to upper layer, packetBytes"
vector 70 BabelShowcase.host1.wlan[0].tap packetReceivedFromLower:vector(packetBytes) ETV
attr interpolationmode none
attr recordingmode vector(packetBytes)
attr source packetReceivedFromLower
attr title "packets received from higher layer, packetBytes"
vector 71 BabelShowcase.host1.wlan[0].tap packetSent:vector(packetBytes) ETV
attr interpolationmode none
attr recordingmode vector(packetBytes)
attr source packetSent
attr title "packets sent, packetBytes"
vector 72 BabelShowcase.host1.wlan[0].mac packetDrop:vector(packetBytes) ETV
attr interpolationmode none
attr recordingmode vector(packetBytes)
attr source packetDropped
attr title "packet drops, packetBytes"
vector 73 BabelShowcase.host1.wlan[0].mac packetDropIncorrectlyReceived:vector(packetBytes) ETV
attr interpolationmode none
attr recordingmode vector(packetBytes)
attr source packetDropReasonIsIncorrectlyReceived(packetDropped)
attr title "packet drops: incorrectly received, packetBytes"
vector 74 BabelShowcase.host0.wlan[0].mac packetDrop:vector(packetBytes) ETV
attr interpolationmode none
attr recordingmode vector(packetBytes)
attr source packetDropped
attr title "packet drops, packetBytes"
vector 75 BabelShowcase.host0.wlan[0].mac packetDropIncorrectlyReceived:vector(packetBytes) ETV
attr interpolationmode none
attr recordingmode vector(packetBytes)
attr source packetDropReasonIsIncorrectlyReceived(packetDropped)
attr title "packet drops: incorrectly received, packetBytes"
vector 76 BabelShowcase.host1.wlan[0].mac.dcf packetSentToPeerBroadcast:vector(packetBytes) ETV
attr interpolationmode none
attr recordingmode vector(packetBytes)
attr source ieee80211Broadcast(packetSentToPeer)
attr title "packets sent: broadcast , packetBytes"
vector 77 BabelShowcase.host0.wlan[0].mac.dcf packetReceivedFromPeerBroadcast:vector(packetBytes) ETV
attr interpolationmode none
attr recordingmode vector(packetBytes)
attr source ieee80211Broadcast(packetReceivedFromPeer)
attr title "packets received: broadcast, packetBytes"
vector 78 BabelShowcase.host0.wlan[0].mac.dcf packetSentToPeerUnicast:vector(packetBytes) ETV
attr interpolationmode none
attr recordingmode vector(packetBytes)
attr source ieee80211Unicast(packetSentToPeer)
attr title "packets sent: unicast, packetBytes"
vector 79 BabelShowcase.host0.wlan[0].mac.rx nav:vector ETV
attr interpolationmode linear
attr recordingmode vector
attr source navChanged
attr title "network allocation vector"
vector 80 BabelShowcase.host1.wlan[0].mac.rx nav:vector ETV
attr interpolationmode linear
attr recordingmode vector
attr source navChanged
attr title "network allocation vector"
vector 81 BabelShowcase.host1.wlan[0].mac.dcf packetDrop:vector(packetBytes) ETV
attr interpolationmode none
attr recordingmode vector(packetBytes)
attr source packetDropped
attr title "packet drops, packetBytes"
vector 82 BabelShowcase.host1.wlan[0].mac.dcf packetDropNotAddressedToUs:vector(packetBytes) ETV
attr interpolationmode none
attr recordingmode vector(packetBytes)
attr source packetDropReasonIsNotAddressedToUs(packetDropped)
attr title "packet drops: not addressed to us, packetBytes"
vector 83 BabelShowcase.host1.wlan[0].mac packetDropNotAddressedToUs:vector(packetBytes) ETV
attr interpolationmode none
attr recordingmode vector(packetBytes)
attr source packetDropReasonIsNotAddressedToUs(packetDropped)
attr title "packet drops: not addressed to us, packetBytes"
vector 84 BabelShowcase.host0.wlan[0].mac.dcf packetSentToPeerWithRetry:vector(packetBytes) ETV
attr interpolationmode none
attr recordingmode vector(packetBytes)
attr source ieee80211Retry(packetSentToPeer)
attr title "packets sent: with retry, packetBytes"
vector 85 BabelShowcase.host0.wlan[0].mac.dcf packetDrop:vector(packetBytes) ETV
attr interpolationmode none
attr recordingmode vector(packetBytes)
attr source packetDropped
attr title "packet drops, packetBytes"
vector 86 BabelShowcase.host0.wlan[0].mac.dcf packetDropRetryLimitReached:vector(packetBytes) ETV
attr interpolationmode none
attr recordingmode vector(packetBytes)
attr source packetDropReasonIsRetryLimitReached(packetDropped)
attr title "packet drops: retry limit reached, packetBytes"
vector 87 BabelShowcase.host0.wlan[0].mac packetDropRetryLimitReached:vector(packetBytes) ETV
attr interpolationmode none
attr recordingmode vector(packetBytes)
attr source packetDropReasonIsRetryLimitReached(packetDropped)
attr title "packet drops: retry limit reached, packetBytes"
0	0	0	0
0	0	0	0
0	7	0.172117798	1
0	15	0.172183798	0
0	28	0.187060018	1
0	36	0.187126018	0
0	48	0.188855539	1
0	56	0.188921539	0
0	68	0.190358712	1
0	76	0.190424712	0
0	88	0.191975621	1
0	96	0.192033621	0
0	108	0.19366176	1
0	116	0.19372776	0
0	132	0.203529433	1
0	140	0.203631433	0
0	153	0.205478873	1
0	161	0.205552873	0
0	173	0.2069206	1
0	184	0.2070306	0
0	193	0.208388298	1
0	201	0.208498298	0
0	213	0.210252587	1
0	221	0.210318587	0
0	233	0.211917094	1
0	241	0.212027094	0
0	254	0.214213918	1
0	262	0.214319918	0
0	280	0.223426496	1
0	288	0.223528496	0
0	313	1.010640568	1
0	317	1.010746568	0
0	341	1.850495622	1
0	345	1.850597622	0
0	358	2.48923866	1
0	366	2.48929666	0
0	390	3.260287403	1
0	394	3.260393403	0
0	418	5.851809233	1
0	422	5.851911233	0
0	432	9.664826979	1
0	436	9.664884979	0
0	474	13.853324347	1
0	478	13.853426347	0
0	491	20.173257984	1
0	499	20.173311984	0
0	512	22.174400592	1
0	520	22.174454592	0
0	530	23.233117138	1
0	534	23.233175138	0
0	547	24.180043642	1
0	555	24.180097642	0
0	579	26.182672706	1
0	583	26.182726706	0
0	603	28.18462157	1
0	607	28.18467557	0
0	641	29.854531803	1
0	645	29.854633803	0
0	658	30.193993547	1
0	666	30.194047547	0
0	679	32.187501136	1
0	687	32.187555136	0
0	700	34.194006537	1
0	708	34.194060537	0
0	721	36.197781363	1
0	729	36.197835363	0
0	742	38.201037895	1
0	750	38.201091895	0
0	763	40.205169645	1
0	771	40.205223645	0
0	784	42.203501895	1
0	792	42.203555895	0
0	805	44.205577059	1
0	813	44.205631059	0
0	826	46.216377135	1
0	834	46.216431135	0
0	847	48.218384282	1
0	855	48.218438282	0
0	868	50.238678193	1
0	876	50.238732193	0
0	886	51.896855213	1
0	890	51.896913213	0
0	903	52.224708706	1
0	911	52.224762706	0
0	924	54.229187513	1
0	932	54.229241513	0
0	959	56.232122715	1
0	967	56.232176715	0
0	980	58.236018981	1
0	988	58.236072981	0
0	1001	60.237188212	1
0	1009	60.237242212	0
0	1033	61.864613145	1
0	1037	61.864715145	0
0	1050	62.254610448	1
0	1058	62.254664448	0
0	1071	64.243852627	1
0	1079	64.243906627	0
0	1092	66.25040964	1
0	1100	66.25046364	0
0	1113	68.264466267	1
0	1121	68.264520267	0
0	1134	70.260982444	1
0	1142	70.261036444	0
0	1155	72.291180509	1
0	1163	72.291234509	0
0	1187	73.385510731	1
0	1197	73.385615731	0
0	1199	73.386374731	1
0	1209	73.386479731	0
0	1211	73.387558731	1
0	1221	73.387663731	0
0	1223	73.392342731	1
0	1233	73.392447731	0
0	1238	73.399166731	1
0	1248	73.399271731	0
0	1250	73.402170731	1
0	1260	73.402275731	0
0	1265	73.415514731	1
0	1275	73.415619731	0
0	1283	74.288482562	1
0	1291	74.288536562	0
0	1314	74.373376547	1
0	1324	74.373481547	0
0	1326	74.373780547	1
0	1336	74.373885547	0
0	1338	74.376264547	1
0	1348	74.376369547	0
0	1351	74.378108547	1
0	1361	74.378213547	0
0	1363	74.379212547	1
0	1373	74.379317547	0
0	1377	74.385456547	1
0	1387	74.385561547	0
0	1393	74.397220547	1
0	1403	74.397325547	0
0	1421	75.392687552	1
0	1431	75.392792552	0
0	1433	75.392831552	1
0	1443	75.392936552	0
0	1445	75.394875552	1
0	1455	75.394980552	0
0	1458	75.398959552	1
0	1468	75.399064552	0
0	1470	75.400983552	1
0	1480	75.401088552	0
0	1485	75.406247552	1
0	1495	75.406352552	0
0	1500	75.424011552	1
0	1510	75.424116552	0
0	1518	76.30729859	1
0	1526	76.30735259	0
0	1550	76.443193545	1
0	1560	76.443298545	0
0	1563	76.460557545	1
0	1573	76.460662545	0
0	1575	76.468441545	1
0	1585	76.468546545	0
0	1589	76.480785545	1
0	1599	76.480890545	0
0	1602	76.492009545	1
0	1612	76.492114545	0
0	1615	76.511613545	1
0	1625	76.511718545	0
0	1627	76.519117545	1
0	1637	76.519222545	0
0	1656	77.441746059	1
0	1666	77.441851059	0
0	1668	77.442070059	1
0	1678	77.442175059	0
0	1680	77.444754059	1
0	1690	77.444859059	0
0	1692	77.444898059	1
0	1702	77.445003059	0
0	1707	77.452922059	1
0	1717	77.453027059	0
0	1721	77.460466059	1
0	1731	77.460571059	0
0	1735	77.471710059	1
0	1745	77.471815059	0
0	1753	78.298156047	1
0	1761	78.298210047	0
0	1785	78.5046728419	1
0	1795	78.5047778419	0
0	1797	78.5074168419	1
0	1807	78.5075218419	0
0	1810	78.5151008419	1
0	1820	78.5152058419	0
0	1822	78.5172048419	1
0	1832	78.5173098419	0
0	1837	78.5288288419	1
0	1847	78.5289338419	0
0	1850	78.5475928419	1
0	1860	78.5476978419	0
0	1863	78.5624168419	1
0	1873	78.5625218419	0
0	1892	79.520718033	1
0	1902	79.520823033	0
0	1904	79.521222033	1
0	1914	79.521327033	0
0	1916	79.522286033	1
0	1926	79.522391033	0
0	1928	79.526970033	1
0	1938	79.527075033	0
0	1940	79.530074033	1
0	1950	79.530179033	0
0	1955	79.534398033	1
0	1965	79.534503033	0
0	1970	79.545782033	1
0	1980	79.545887033	0
0	1988	80.308372362	1
0	1996	80.308426362	0
0	2020	80.556649817	1
0	2030	80.556754817	0
0	2033	80.570893817	1
0	2043	80.570998817	0
0	2045	80.571757817	1
0	2055	80.571862817	0
0	2059	80.587461817	1
0	2069	80.587566817	0
0	2071	80.589325817	1
0	2081	80.589430817	0
0	2083	80.590329817	1
0	2093	80.590434817	0
0	2098	80.607913817	1
0	2108	80.608018817	0
0	2126	81.552142432	1
0	2137	81.552247432	0
0	2139	81.553306432	1
0	2149	81.553411432	0
0	2151	81.555050432	1
0	2161	81.555155432	0
0	2163	81.555834432	1
0	2173	81.555939432	0
0	2175	81.559618432	1
0	2185	81.559723432	0
0	2188	81.562322432	1
0	2198	81.562427432	0
0	2205	81.578586432	1
0	2215	81.578691432	0
0	2223	82.30578003	1
0	2231	82.30583403	0
0	2255	83.583350389	1
0	2265	83.583455389	0
0	2267	83.587174389	1
0	2277	83.587279389	0
0	2280	83.596198389	1
0	2290	83.596303389	0
0	2293	83.606102389	1
0	2303	83.606207389	0
0	2307	83.618026389	1
0	2317	83.618131389	0
0	2319	83.623890389	1
0	2329	83.623995389	0
0	2332	83.629634389	1
0	2342	83.629739389	0
0	2351	84.310865638	1
0	2359	84.310919638	0
0	2383	84.602957522	1
0	2393	84.603062522	0
0	2395	84.603781522	1
0	2405	84.603886522	0
0	2407	84.606065522	1
0	2417	84.606170522	0
0	2419	84.606469522	1
0	2429	84.606574522	0
0	2433	84.613973522	1
0	2443	84.614078522	0
0	2447	84.620037522	1
0	2457	84.620142522	0
0	2460	84.626741522	1
0	2470	84.626846522	0
0	2489	85.606210204	1
0	2499	85.606315204	0
0	2501	85.606514204	1
0	2511	85.606619204	0
0	2513	85.607178204	1
0	2523	85.607283204	0
0	2526	85.611202204	1
0	2536	85.611307204	0
0	2539	85.616306204	1
0	2549	85.616411204	0
0	2553	85.620050204	1
0	2563	85.620155204	0
0	2567	85.626654204	1
0	2577	85.626759204	0
0	2586	86.31183695	1
0	2594	86.31189095	0
0	2618	86.6411796069	1
0	2628	86.6412846069	0
0	2630	86.6465236069	1
0	2640	86.6466286069	0
0	2644	86.6659276069	1
0	2654	86.6660326069	0
0	2657	86.6810516069	1
0	2667	86.6811566069	0
0	2669	86.6839756069	1
0	2679	86.6840806069	0
0	2683	86.7045196069	1
0	2693	86.7046246069	0
0	2696	86.7166236069	1
0	2706	86.7167286069	0
0	2724	87.659652668	1
0	2734	87.659757668	0
0	2736	87.660696668	1
0	2746	87.660801668	0
0	2748	87.662340668	1
0	2758	87.662445668	0
0	2761	87.666164668	1
0	2771	87.666269668	0
0	2773	87.666628668	1
0	2783	87.666733668	0
0	2786	87.669812668	1
0	2796	87.669917668	0
0	2803	87.688456668	1
0	2813	87.688561668	0
0	2821	88.327449838	1
0	2829	88.327503838	0
0	2852	88.6865754259	1
0	2862	88.6866804259	0
0	2866	88.7058394259	1
0	2876	88.7059444259	0
0	2879	88.7237634259	1
0	2889	88.7238684259	0
0	2892	88.7416274259	1
0	2902	88.7417324259	0
0	2904	88.7441114259	1
0	2914	88.7442164259	0
0	2917	88.7531554259	1
0	2927	88.7532604259	0
0	2931	88.7651994259	1
0	2941	88.7653044259	0
0	2959	89.7097202	1
0	2969	89.7098252	0
0	2971	89.7105042	1
0	2981	89.7106092	0
0	2983	89.7126482	1
0	2993	89.7127532	0
0	2996	89.7178122	1
0	3006	89.7179172	0
0	3011	89.7229762	1
0	3021	89.7230812	0
0	3023	89.7255402	1
0	3033	89.7256452	0
0	3036	89.7322042	1
0	3046	89.7323092	0
0	3056	90.345877673	1
0	3064	90.345931673	0
0	3088	90.746864696	1
0	3098	90.746969696	0
0	3101	90.760928696	1
0	3111	90.761033696	0