                                                                
version 3
run General-0-20230921-18:16:39-45176
attr configname General
attr datetime 20230921-18:16:39
attr datetimef 20230921-181639
attr experiment General
attr inifile babel.ini
attr iterationvars ""
attr iterationvarsd ""
attr iterationvarsf ""
attr measurement ""
attr network BabelShowcase
attr processid 45176
attr repetition 0
attr replication #0
attr resultdir results
attr runnumber 0
attr seedset 0
config image-path ../../../omnetpp-6.0.1/samples/inet4.5/images
config network BabelShowcase
config scheduler-class inet::RealTimeScheduler
config *.visualizer.interfaceTableVisualizer[0].displayInterfaceTables true
config *.visualizer.mediumVisualizer[0].displayCommunicationRanges true
config *.visualizer.numDataLinkVisualizers 2
config *.visualizer.*.displaySignals true
config *.visualizer.dataLinkVisualizer[0].displayLinks true
config *.visualizer.dataLinkVisualizer[0].lineColor "\"red1\""
config *.visualizer.dataLinkVisualizer[0].packetFilter "\"*\""
config *.*.wlan[*].mac.fcsMode "\"computed\""
config **.crcMode "\"declared\""
config *.*.wlan[*].radio.transmitter.power 2mW
config *.host*.wlan[0].typename ExtUpperIeee80211Interface
config *.host*.wlan[0].copyConfiguration "\"copyFromExt\""
config *.host0.wlan[0].device "\"taps1-eth2\""
config *.host1.wlan[0].device "\"taps2-eth2\""

vector 0 BabelShowcase.host0.wlan[0].mac.dcf frameSequenceActive:vector ETV
attr autoWarmupFilter false
attr interpolationmode sample-hold
attr recordingmode vector
attr source warmup(count(frameSequenceStarted)-count(frameSequenceFinished))
attr title "frame sequence active"
vector 1 BabelShowcase.host0.wlan[0].mac.dcf.channelAccess.inProgressFrames queueLength:vector ETV
attr autoWarmupFilter false
attr interpolationmode sample-hold
attr recordingmode vector
attr source "warmup(count(packetEnqueued) - count(packetDequeued))"
attr title "queue length"
vector 2 BabelShowcase.host0.wlan[0].mac.dcf.channelAccess.contention backoffActive:vector ETV
attr autoWarmupFilter false
attr interpolationmode sample-hold
attr recordingmode vector
attr source warmup(count(backoffStarted)-count(backoffStopped))
attr title "backoff active"
vector 3 BabelShowcase.host0.udp passedUpPk:vector(count) ETV
attr interpolationmode none
attr recordingmode vector(count)
attr source packetSentToUpper
attr title "packets passed up, count"
vector 4 BabelShowcase.host0.udp droppedPkWrongPort:vector(count) ETV
attr interpolationmode none
attr recordingmode vector(count)
attr source packetDropReasonIsNoPortFound(packetDropped)
attr title "packets dropped (wrong port), count"
vector 5 BabelShowcase.host0.udp droppedPkBadChecksum:vector(count) ETV
attr interpolationmode none
attr recordingmode vector(count)
attr source packetDropReasonIsIncorrectlyReceived(packetDropped)
attr title "packets dropped (checksum error), count"
vector 6 BabelShowcase.host1.wlan[0].mac.dcf frameSequenceActive:vector ETV
attr autoWarmupFilter false
attr interpolationmode sample-hold
attr recordingmode vector
attr source warmup(count(frameSequenceStarted)-count(frameSequenceFinished))
attr title "frame sequence active"
vector 7 BabelShowcase.host1.wlan[0].mac.dcf.channelAccess.inProgressFrames queueLength:vector ETV
attr autoWarmupFilter false
attr interpolationmode sample-hold
attr recordingmode vector
attr source "warmup(count(packetEnqueued) - count(packetDequeued))"
attr title "queue length"
vector 8 BabelShowcase.host1.wlan[0].mac.dcf.channelAccess.contention backoffActive:vector ETV
attr autoWarmupFilter false
attr interpolationmode sample-hold
attr recordingmode vector
attr source warmup(count(backoffStarted)-count(backoffStopped))
attr title "backoff active"
vector 9 BabelShowcase.host1.udp passedUpPk:vector(count) ETV
attr interpolationmode none
attr recordingmode vector(count)
attr source packetSentToUpper
attr title "packets passed up, count"
vector 10 BabelShowcase.host1.udp droppedPkWrongPort:vector(count) ETV
attr interpolationmode none
attr recordingmode vector(count)
attr source packetDropReasonIsNoPortFound(packetDropped)
attr title "packets dropped (wrong port), count"
vector 11 BabelShowcase.host1.udp droppedPkBadChecksum:vector(count) ETV
attr interpolationmode none
attr recordingmode vector(count)
attr source packetDropReasonIsIncorrectlyReceived(packetDropped)
attr title "packets dropped (checksum error), count"
vector 12 BabelShowcase.host0.wlan[0].radio radioMode:vector ETV
attr interpolationmode sample-hold
attr recordingmode vector
attr source radioModeChanged
attr title "Radio mode"
vector 13 BabelShowcase.host0.wlan[0].radio radioChannel:vector ETV
attr interpolationmode sample-hold
attr recordingmode vector
attr source radioChannelChanged
attr title "Radio channel"
vector 14 BabelShowcase.host1.wlan[0].radio radioMode:vector ETV
attr interpolationmode sample-hold
attr recordingmode vector
attr source radioModeChanged
attr title "Radio mode"
vector 15 BabelShowcase.host1.wlan[0].radio radioChannel:vector ETV
attr interpolationmode sample-hold
attr recordingmode vector
attr source radioChannelChanged
attr title "Radio channel"
vector 16 BabelShowcase.host0.wlan[0].radio receptionState:vector ETV
attr interpolationmode sample-hold
attr recordingmode vector
attr source receptionStateChanged
attr title "Radio reception state"
vector 17 BabelShowcase.host0.wlan[0].mac.dcf.channelAccess.contention stateChanged:vector ETV
attr enum IDLE,DEFER,IFS_AND_BACKOFF
attr interpolationmode none
attr recordingmode vector
attr title "contention state changed"
attr type enum
vector 18 BabelShowcase.host1.wlan[0].radio receptionState:vector ETV
attr interpolationmode sample-hold
attr recordingmode vector
attr source receptionStateChanged
attr title "Radio reception state"
vector 19 BabelShowcase.host1.wlan[0].mac.dcf.channelAccess.contention stateChanged:vector ETV
attr enum IDLE,DEFER,IFS_AND_BACKOFF
attr interpolationmode none
attr recordingmode vector
attr title "contention state changed"
attr type enum
vector 20 BabelShowcase.host0.wlan[0].mac.dcf.recoveryProcedure contentionWindowChanged:vector ETV
attr interpolationmode sample-hold
attr recordingmode vector
attr title "contention window"
vector 21 BabelShowcase.host1.wlan[0].mac.dcf.recoveryProcedure contentionWindowChanged:vector ETV
attr interpolationmode sample-hold
attr recordingmode vector
attr title "contention window"
vector 22 BabelShowcase.host0.wlan[0].tap packetReceived:vector(packetBytes) ETV
attr interpolationmode none
attr recordingmode vector(packetBytes)
attr source packetReceived
attr title "packets received, packetBytes"
vector 23 BabelShowcase.host0.wlan[0].tap packetSentFromLower:vector(packetBytes) ETV
attr interpolationmode none
attr recordingmode vector(packetBytes)
attr source packetSentToLower
attr title "packets sent to higher layer, packetBytes"
vector 24 BabelShowcase.host1.wlan[0].tap packetReceived:vector(packetBytes) ETV
attr interpolationmode none
attr recordingmode vector(packetBytes)
attr source packetReceived
attr title "packets received, packetBytes"
vector 25 BabelShowcase.host1.wlan[0].tap packetSentFromLower:vector(packetBytes) ETV
attr interpolationmode none
attr recordingmode vector(packetBytes)
attr source packetSentToLower
attr title "packets sent to higher layer, packetBytes"
vector 26 BabelShowcase.host0.wlan[0].mac packetReceivedFromUpper:vector(packetBytes) ETV
attr interpolationmode none
attr recordingmode vector(packetBytes)
attr title "packets received from upper layer, packetBytes"
vector 27 BabelShowcase.host0.wlan[0].mac.dcf.channelAccess.pendingQueue incomingPacketLengths:vector ETV
attr interpolationmode none
attr recordingmode vector
attr source packetLength(packetPushStarted)
attr title "incoming packet lengths"
attr unit b
vector 28 BabelShowcase.host0.wlan[0].mac.dcf.channelAccess.pendingQueue incomingDataRate:vector ETV
attr interpolationmode linear
attr recordingmode vector
attr source throughput(packetPushStarted)
attr title "incoming datarate"
attr unit bps
vector 29 BabelShowcase.host0.wlan[0].mac.dcf.channelAccess.pendingQueue queueLength:vector ETV
attr autoWarmupFilter false
attr interpolationmode sample-hold
attr recordingmode vector
attr source "warmup(atomic(constant0(packetPushEnded) + count(packetPushStarted) - count(packetPulled) - count(packetRemoved) - count(packetDropped)))"
attr title "queue length"
attr unit pk
vector 30 BabelShowcase.host0.wlan[0].mac.dcf.channelAccess.pendingQueue queueBitLength:vector ETV
attr autoWarmupFilter false
attr interpolationmode sample-hold
attr recordingmode vector
attr source "warmup(atomic(constant0(packetPushEnded) + sum(packetLength(packetPushStarted)) - sum(packetLength(packetPulled)) - sum(packetLength(packetRemoved)) - sum(packetLength(packetDropped))))"
attr title "queue bit length"
attr unit b
vector 31 BabelShowcase.host0.wlan[0].mac.dcf.channelAccess.contention backoffPeriodGenerated:vector ETV
attr interpolationmode none
attr recordingmode vector
attr title "backoff periods"
vector 32 BabelShowcase.host1.wlan[0].mac packetReceivedFromUpper:vector(packetBytes) ETV
attr interpolationmode none
attr recordingmode vector(packetBytes)
attr title "packets received from upper layer, packetBytes"
vector 33 BabelShowcase.host1.wlan[0].mac.dcf.channelAccess.pendingQueue incomingPacketLengths:vector ETV
attr interpolationmode none
attr recordingmode vector
attr source packetLength(packetPushStarted)
attr title "incoming packet lengths"
attr unit b
vector 34 BabelShowcase.host1.wlan[0].mac.dcf.channelAccess.pendingQueue incomingDataRate:vector ETV
attr interpolationmode linear
attr recordingmode vector
attr source throughput(packetPushStarted)
attr title "incoming datarate"
attr unit bps
vector 35 BabelShowcase.host1.wlan[0].mac.dcf.channelAccess.pendingQueue queueLength:vector ETV
attr autoWarmupFilter false
attr interpolationmode sample-hold
attr recordingmode vector
attr source "warmup(atomic(constant0(packetPushEnded) + count(packetPushStarted) - count(packetPulled) - count(packetRemoved) - count(packetDropped)))"
attr title "queue length"
attr unit pk
vector 36 BabelShowcase.host1.wlan[0].mac.dcf.channelAccess.pendingQueue queueBitLength:vector ETV
attr autoWarmupFilter false
attr interpolationmode sample-hold
attr recordingmode vector
attr source "warmup(atomic(constant0(packetPushEnded) + sum(packetLength(packetPushStarted)) - sum(packetLength(packetPulled)) - sum(packetLength(packetRemoved)) - sum(packetLength(packetDropped))))"
attr title "queue bit length"
attr unit b
vector 37 BabelShowcase.host1.wlan[0].mac.dcf.channelAccess.contention backoffPeriodGenerated:vector ETV
attr interpolationmode none
attr recordingmode vector
attr title "backoff periods"
vector 38 BabelShowcase.host0.wlan[0].mac.dcf.channelAccess.pendingQueue queueingTime:vector ETV
attr interpolationmode none
attr recordingmode vector
attr source queueingTime(packetPulled)
attr title "queueing times"
attr unit s
vector 39 BabelShowcase.host0.wlan[0].mac.dcf.channelAccess.pendingQueue outgoingPacketLengths:vector ETV
attr interpolationmode none
attr recordingmode vector
attr source packetLength(packetPulled)
attr title "outgoing packet lengths"
attr unit b
vector 40 BabelShowcase.host0.wlan[0].mac.dcf.channelAccess.pendingQueue outgoingDataRate:vector ETV
attr interpolationmode linear
attr recordingmode vector
attr source throughput(packetPulled)
attr title "outgoing datarate"
attr unit bps
vector 41 BabelShowcase.host0.wlan[0].mac.dcf datarateSelected:vector ETV
attr interpolationmode none
attr recordingmode vector
attr title "datarates selected"
vector 42 BabelShowcase.host0.wlan[0].mac packetSentToLower:vector(packetBytes) ETV
attr interpolationmode none
attr recordingmode vector(packetBytes)
attr title "packets sent to lower layer, packetBytes"
vector 43 BabelShowcase.host0.wlan[0].radio transmissionState:vector ETV
attr interpolationmode sample-hold
attr recordingmode vector
attr source transmissionStateChanged
attr title "Radio transmission state"
vector 44 BabelShowcase.host1.wlan[0].mac.dcf.channelAccess.pendingQueue queueingTime:vector ETV
attr interpolationmode none
attr recordingmode vector
attr source queueingTime(packetPulled)
attr title "queueing times"
attr unit s
vector 45 BabelShowcase.host1.wlan[0].mac.dcf.channelAccess.pendingQueue outgoingPacketLengths:vector ETV
attr interpolationmode none
attr recordingmode vector
attr source packetLength(packetPulled)
attr title "outgoing packet lengths"
attr unit b
vector 46 BabelShowcase.host1.wlan[0].mac.dcf.channelAccess.pendingQueue outgoingDataRate:vector ETV
attr interpolationmode linear
attr recordingmode vector
attr source throughput(packetPulled)
attr title "outgoing datarate"
attr unit bps
vector 47 BabelShowcase.host1.wlan[0].mac.dcf datarateSelected:vector ETV
attr interpolationmode none
attr recordingmode vector
attr title "datarates selected"
vector 48 BabelShowcase.host1.wlan[0].mac packetSentToLower:vector(packetBytes) ETV
attr interpolationmode none
attr recordingmode vector(packetBytes)
attr title "packets sent to lower layer, packetBytes"
vector 49 BabelShowcase.host1.wlan[0].radio transmissionState:vector ETV
attr interpolationmode sample-hold
attr recordingmode vector
attr source transmissionStateChanged
attr title "Radio transmission state"
vector 50 BabelShowcase.host0.wlan[0].mac.dcf packetSentToPeer:vector(packetBytes) ETV
attr interpolationmode none
attr recordingmode vector(packetBytes)
attr title "packets sent, packetBytes"
vector 51 BabelShowcase.host0.wlan[0].mac.dcf packetSentToPeerMulticast:vector(packetBytes) ETV
attr interpolationmode none
attr recordingmode vector(packetBytes)
attr source ieee80211Multicast(packetSentToPeer)
attr title "packets sent: multicast, packetBytes"
vector 52 BabelShowcase.host0.wlan[0].mac.dcf packetSentToPeerWithoutRetry:vector(packetBytes) ETV
attr interpolationmode none
attr recordingmode vector(packetBytes)
attr source ieee80211NotRetry(packetSentToPeer)
attr title "packets sent: without retry, packetBytes"
vector 53 BabelShowcase.host0.wlan[0].mac.dcf.channelAccess.inProgressFrames queueingTime:vector ETV
attr interpolationmode none
attr recordingmode vector
attr source queueingTime(packetDequeued)
attr title "queueing times"
vector 54 BabelShowcase.host1.wlan[0].mac.dcf packetSentToPeer:vector(packetBytes) ETV
attr interpolationmode none
attr recordingmode vector(packetBytes)
attr title "packets sent, packetBytes"
vector 55 BabelShowcase.host1.wlan[0].mac.dcf packetSentToPeerMulticast:vector(packetBytes) ETV
attr interpolationmode none
attr recordingmode vector(packetBytes)
attr source ieee80211Multicast(packetSentToPeer)
attr title "packets sent: multicast, packetBytes"
vector 56 BabelShowcase.host1.wlan[0].mac.dcf packetSentToPeerWithoutRetry:vector(packetBytes) ETV
attr interpolationmode none
attr recordingmode vector(packetBytes)
attr source ieee80211NotRetry(packetSentToPeer)
attr title "packets sent: without retry, packetBytes"
vector 57 BabelShowcase.host1.wlan[0].mac.dcf.channelAccess.inProgressFrames queueingTime:vector ETV
attr interpolationmode none
attr recordingmode vector
attr source queueingTime(packetDequeued)
attr title "queueing times"
vector 58 BabelShowcase.host0.wlan[0].mac packetReceivedFromLower:vector(packetBytes) ETV
attr interpolationmode none
attr recordingmode vector(packetBytes)
attr title "packets received from lower layer, packetBytes"
vector 59 BabelShowcase.host0.wlan[0].mac.dcf packetReceivedFromPeer:vector(packetBytes) ETV
attr interpolationmode none
attr recordingmode vector(packetBytes)
attr title "packets received, packetBytes"
vector 60 BabelShowcase.host0.wlan[0].mac.dcf packetReceivedFromPeerMulticast:vector(packetBytes) ETV
attr interpolationmode none
attr recordingmode vector(packetBytes)
attr source ieee80211Multicast(packetReceivedFromPeer)
attr title "packets received: multicast, packetBytes"
vector 61 BabelShowcase.host0.wlan[0].mac.dcf packetReceivedFromPeerWithoutRetry:vector(packetBytes) ETV
attr interpolationmode none
attr recordingmode vector(packetBytes)
attr source ieee80211NotRetry(packetReceivedFromPeer)
attr title "packets received: without retry, packetBytes"
vector 62 BabelShowcase.host0.wlan[0].mac packetSentToUpper:vector(packetBytes) ETV
attr interpolationmode none
attr recordingmode vector(packetBytes)
attr title "packets sent to upper layer, packetBytes"
vector 63 BabelShowcase.host0.wlan[0].tap packetReceivedFromLower:vector(packetBytes) ETV
attr interpolationmode none
attr recordingmode vector(packetBytes)
attr source packetReceivedFromLower
attr title "packets received from higher layer, packetBytes"
vector 64 BabelShowcase.host0.wlan[0].tap packetSent:vector(packetBytes) ETV
attr interpolationmode none
attr recordingmode vector(packetBytes)
attr source packetSent
attr title "packets sent, packetBytes"
vector 65 BabelShowcase.host1.wlan[0].mac packetReceivedFromLower:vector(packetBytes) ETV
attr interpolationmode none
attr recordingmode vector(packetBytes)
attr title "packets received from lower layer, packetBytes"
vector 66 BabelShowcase.host1.wlan[0].mac.dcf packetReceivedFromPeer:vector(packetBytes) ETV
attr interpolationmode none
attr recordingmode vector(packetBytes)
attr title "packets received, packetBytes"
vector 67 BabelShowcase.host1.wlan[0].mac.dcf packetReceivedFromPeerMulticast:vector(packetBytes) ETV
attr interpolationmode none
attr recordingmode vector(packetBytes)
attr source ieee80211Multicast(packetReceivedFromPeer)
attr title "packets received: multicast, packetBytes"
vector 68 BabelShowcase.host1.wlan[0].mac.dcf packetReceivedFromPeerWithoutRetry:vector(packetBytes) ETV
attr interpolationmode none
attr recordingmode vector(packetBytes)
attr source ieee80211NotRetry(packetReceivedFromPeer)
attr title "packets received: without retry, packetBytes"
vector 69 BabelShowcase.host1.wlan[0].mac packetSentToUpper:vector(packetBytes) ETV
attr interpolationmode none
attr recordingmode vector(packetBytes)
attr title "packets sent to upper layer, packetBytes"
vector 70 BabelShowcase.host1.wlan[0].tap packetReceivedFromLower:vector(packetBytes) ETV
attr interpolationmode none
attr recordingmode vector(packetBytes)
attr source packetReceivedFromLower
attr title "packets received from higher layer, packetBytes"
vector 71 BabelShowcase.host1.wlan[0].tap packetSent:vector(packetBytes) ETV
attr interpolationmode none
attr recordingmode vector(packetBytes)
attr source packetSent
attr title "packets sent, packetBytes"
vector 72 BabelShowcase.host1.wlan[0].mac packetDrop:vector(packetBytes) ETV
attr interpolationmode none
attr recordingmode vector(packetBytes)
attr source packetDropped
attr title "packet drops, packetBytes"
vector 73 BabelShowcase.host1.wlan[0].mac packetDropIncorrectlyReceived:vector(packetBytes) ETV
attr interpolationmode none
attr recordingmode vector(packetBytes)
attr source packetDropReasonIsIncorrectlyReceived(packetDropped)
attr title "packet drops: incorrectly received, packetBytes"
vector 74 BabelShowcase.host0.wlan[0].mac packetDrop:vector(packetBytes) ETV
attr interpolationmode none
attr recordingmode vector(packetBytes)
attr source packetDropped
attr title "packet drops, packetBytes"
vector 75 BabelShowcase.host0.wlan[0].mac packetDropIncorrectlyReceived:vector(packetBytes) ETV
attr interpolationmode none
attr recordingmode vector(packetBytes)
attr source packetDropReasonIsIncorrectlyReceived(packetDropped)
attr title "packet drops: incorrectly received, packetBytes"
vector 76 BabelShowcase.host1.wlan[0].mac.dcf packetSentToPeerBroadcast:vector(packetBytes) ETV
attr interpolationmode none
attr recordingmode vector(packetBytes)
attr source ieee80211Broadcast(packetSentToPeer)
attr title "packets sent: broadcast , packetBytes"
vector 77 BabelShowcase.host0.wlan[0].mac.dcf packetReceivedFromPeerBroadcast:vector(packetBytes) ETV
attr interpolationmode none
attr recordingmode vector(packetBytes)
attr source ieee80211Broadcast(packetReceivedFromPeer)
attr title "packets received: broadcast, packetBytes"
vector 78 BabelShowcase.host0.wlan[0].mac.dcf packetSentToPeerUnicast:vector(packetBytes) ETV
attr interpolationmode none
attr recordingmode vector(packetBytes)
attr source ieee80211Unicast(packetSentToPeer)
attr title "packets sent: unicast, packetBytes"
vector 79 BabelShowcase.host0.wlan[0].mac.rx nav:vector ETV
attr interpolationmode linear
attr recordingmode vector
attr source navChanged
attr title "network allocation vector"
vector 80 BabelShowcase.host1.wlan[0].mac.rx nav:vector ETV
attr interpolationmode linear
attr recordingmode vector
attr source navChanged
attr title "network allocation vector"
vector 81 BabelShowcase.host1.wlan[0].mac.dcf packetDrop:vector(packetBytes) ETV
attr interpolationmode none
attr recordingmode vector(packetBytes)
attr source packetDropped
attr title "packet drops, packetBytes"
vector 82 BabelShowcase.host1.wlan[0].mac.dcf packetDropNotAddressedToUs:vector(packetBytes) ETV
attr interpolationmode none
attr recordingmode vector(packetBytes)
attr source packetDropReasonIsNotAddressedToUs(packetDropped)
attr title "packet drops: not addressed to us, packetBytes"
vector 83 BabelShowcase.host1.wlan[0].mac packetDropNotAddressedToUs:vector(packetBytes) ETV
attr interpolationmode none
attr recordingmode vector(packetBytes)
attr source packetDropReasonIsNotAddressedToUs(packetDropped)
attr title "packet drops: not addressed to us, packetBytes"
vector 84 BabelShowcase.host0.wlan[0].mac.dcf packetSentToPeerWithRetry:vector(packetBytes) ETV
attr interpolationmode none
attr recordingmode vector(packetBytes)
attr source ieee80211Retry(packetSentToPeer)
attr title "packets sent: with retry, packetBytes"
vector 85 BabelShowcase.host0.wlan[0].mac.dcf packetDrop:vector(packetBytes) ETV
attr interpolationmode none
attr recordingmode vector(packetBytes)
attr source packetDropped
attr title "packet drops, packetBytes"
vector 86 BabelShowcase.host0.wlan[0].mac.dcf packetDropRetryLimitReached:vector(packetBytes) ETV
attr interpolationmode none
attr recordingmode vector(packetBytes)
attr source packetDropReasonIsRetryLimitReached(packetDropped)
attr title "packet drops: retry limit reached, packetBytes"
vector 87 BabelShowcase.host0.wlan[0].mac packetDropRetryLimitReached:vector(packetBytes) ETV
attr interpolationmode none
attr recordingmode vector(packetBytes)
attr source packetDropReasonIsRetryLimitReached(packetDropped)
attr title "packet drops: retry limit reached, packetBytes"
0	22407 16073 0 6039 0 117.264123645 726 0 1 362 362
1	38480 5021 0 6039 0 117.264123645 234 0 1 116 116
2	43501 16064 0 6028 0 117.264018645 726 0 1 362 362
3	59565 8 0 0 0 0 1 0 0 0 0
4	59573 8 0 0 0 0 1 0 0 0 0
5	59581 8 0 0 0 0 1 0 0 0 0
6	59589 5004 0 6049 0 117.439304569 234 0 1 116 116
7	64593 5004 0 6049 0 117.439304569 234 0 1 116 116
8	69597 5001 0 6044 0 117.439246569 234 0 1 116 116
9	74598 8 0 0 0 0 1 0 0 0 0
10	74606 9 0 0 0 0 1 0 0 0 0
11	74615 9 0 0 0 0 1 0 0 0 0
12	74624 16808 0 6034 0 117.264068645 727 0 3 1812 4710
13	91432 9 0 0 0 0 1 0 0 0 0
14	91441 5247 0 6050 0 117.439304569 235 0 3 582 1512
15	96688 9 0 0 0 0 1 0 0 0 0
16	96697 20882 0 6051 0 117.4393049059 897 0 3 707 1165
17	117579 72976 0 6051 0 117.4393049059 3136 0 2 1448 2896
18	190555 21319 0 6050 0 117.439304569 897 0 3 1445 3379
19	211874 78744 0 6050 0 117.439304569 3300 0 2 464 928
20	290618 3646 0 6039 0 117.264123645 145 31 1023 48271 33450577
21	294264 10 0 0 0 0 1 31 31 31 961
22	294274 2741 0 5947 0.172117798 117.216634645 116 46 226 8909 976151
23	297015 2741 0 5947 0.172117798 117.216634645 116 46 226 8909 976151
24	299756 2738 0 6041 0.172117798 117.439246569 116 46 226 8909 976151
25	302494 2738 0 6041 0.172117798 117.439246569 116 46 226 8909 976151
26	305232 2741 3 5949 0.172117798 117.216634645 116 36 216 6965 737443
27	307973 2857 3 5949 0.172117798 117.216634645 116 512 1952 81704 77979328
28	310830 17135 3 5949 0.1 117.2 1172 0 132640 811920 25275168000
29	327965 5229 3 5951 0.172117798 117.216634645 232 0 1 116 116
30	333194 5475 3 5951 0.172117798 117.216634645 232 0 1952 81704 77979328
31	338669 8919 3 6025 0.172117798 117.257019645 362 0 1020 101207 61882961
32	347588 2738 4 6043 0.172117798 117.439246569 116 36 216 6965 737443
33	350326 2854 4 6043 0.172117798 117.439246569 116 512 1952 81704 77979328
34	353180 17167 4 6043 0.1 117.4 1174 0 132640 809680 25247212800
35	370347 5218 4 6045 0.172117798 117.439246569 232 0 1 116 116
36	375565 5464 4 6045 0.172117798 117.439246569 232 0 1952 81704 77979328
37	381029 2680 4 6043 0.172117798 117.439246569 116 0 31 1625 32985
38	383709 2673 7 5951 0.172117798 117.216634645 116 0 0.0104668279 0.0308186515 0.00025103165788048
39	386382 2864 7 5951 0.172117798 117.216634645 116 512 1952 81704 77979328
40	389246 17155 7 5951 0.1 117.2 1172 0 132640 811920 25275168000
41	406401 10924 7 6029 0.172117798 117.264018645 362 24000000 24000000 8688000000 2.08512e+17
42	417325 8772 7 6029 0.172117798 117.264018645 362 64 244 25957 2226043
43	426097 33562 8 6034 0.172117798 117.264068645 1448 0 2 1448 2172
44	459659 2610 10 6045 0.172117798 117.439246569 116 0 0 0 0
45	462269 2856 10 6045 0.172117798 117.439246569 116 512 1952 81704 77979328
46	465125 17188 10 6045 0.1 117.4 1174 0 132640 809680 25247212800
47	482313 3422 10 6045 0.172117798 117.439246569 116 24000000 24000000 2784000000 6.6816e+16
48	485735 2746 10 6045 0.172117798 117.439246569 116 64 244 10213 1218427
49	488481 10440 11 6050 0.172117798 117.439304569 464 0 2 464 696
50	498921 8773 15 6033 0.172183798 117.264068645 362 64 244 25957 2226043
51	507694 1752 15 5928 0.172183798 116.437322344 75 66 244 7589 1050491
52	509446 2755 15 5955 0.172183798 117.216684645 116 64 244 10213 1218427
53	512201 3366 15 6039 0.172183798 117.264123645 116 5.4e-05 0.078729 1.700735 0.080702213757
54	515567 2746 16 6049 0.172183798 117.439304569 116 64 244 10213 1218427
55	518313 2746 16 6049 0.172183798 117.439304569 116 64 244 10213 1218427
56	521059 2746 16 6049 0.172183798 117.439304569 116 64 244 10213 1218427
57	523805 3234 16 6049 0.172183798 117.439304569 116 5e-05 0.00011 0.006876 4.40016e-07
58	527039 1435 306 6052 0.8523322809 117.4393049059 57 64 232 4911 584345
59	528474 1311 306 6052 0.8523322809 117.4393049059 52 64 232 4581 562565
60	529785 1311 306 6052 0.8523322809 117.4393049059 52 64 232 4581 562565
61	531096 1311 306 6052 0.8523322809 117.4393049059 52 64 232 4581 562565
62	532407 1311 306 6052 0.8523322809 117.4393049059 52 36 204 3125 346797
63	533718 1311 308 6054 0.8523322809 117.4393049059 52 46 214 3645 414497
64	535029 1311 308 6054 0.8523322809 117.4393049059 52 42 210 3437 386169
65	536340 7680 320 6036 1.0107469049 117.2640689819 303 64 232 20655 1591961
66	544020 269 320 5095 1.0107469049 109.2426439219 11 92 232 1957 394629
67	544289 269 320 5095 1.0107469049 109.2426439219 11 92 232 1957 394629
68	544558 269 320 5095 1.0107469049 109.2426439219 11 92 232 1957 394629
69	544827 269 320 5095 1.0107469049 109.2426439219 11 64 204 1649 293661
70	545096 269 322 5097 1.0107469049 109.2426439219 11 74 214 1759 327741
71	545365 269 322 5097 1.0107469049 109.2426439219 11 70 210 1715 313845
72	545634 7411 586 6036 26.1827270429 117.2640689819 292 64 66 18698 1197332
73	553045 124 586 5451 26.1827270429 112.3902805789 5 66 66 330 21780
74	553169 1127 597 6039 26.1849376859 117.264123645 46 64 66 2954 189716
75	554296 124 597 5462 26.1849376859 112.3932666589 5 66 66 330 21780
76	554420 994 1177 5942 73.349023319 117.211324876 41 64 64 2624 167936
77	555414 1041 1180 5945 73.3490236559 117.2113252129 41 64 64 2624 167936
78	556455 7021 1191 6033 73.385560731 117.264068645 287 64 64 18368 1175552
79	563476 21924 1191 6037 73.385560731 117.264112645 861 0 4.4e-05 0.012628 5.55632e-07
80	585400 22722 1194 6038 73.3855610679 117.2641129819 861 0 4.4e-05 0.012628 5.55632e-07
81	608122 7287 1194 6036 73.3855610679 117.2640689819 287 64 64 18368 1175552
82	615409 7287 1194 6036 73.3855610679 117.2640689819 287 64 64 18368 1175552
83	622696 7287 1194 6036 73.3855610679 117.2640689819 287 64 64 18368 1175552
84	629983 6018 1203 6033 73.386424731 117.264068645 246 64 64 15744 1007616
85	636001 1003 1275 6039 73.415619731 117.264123645 41 64 64 2624 167936
86	637004 1003 1275 6039 73.415619731 117.264123645 41 64 64 2624 167936
87	638007 1003 1275 6039 73.415619731 117.264123645 41 64 64 2624 167936
0	639010 4074 6062 7463 118.108340153 125.277365614 172 0 1 86 86
1	643084 937 6062 7463 118.108340153 125.277365614 40 0 2 28 36
2	644021 4310 6058 7452 118.108340153 125.277260614 182 0 1 91 91
6	648331 1058 6065 7365 118.108340153 125.239453706 46 0 1 23 23
7	649389 1058 6065 7365 118.108340153 125.239453706 46 0 1 23 23
8	650447 1058 6059 7360 118.108340153 125.239403706 46 0 1 23 23
12	651505 4246 6063 7458 118.108340153 125.277310614 172 2 3 430 1118
14	655751 1104 6066 7366 118.108340153 125.239453706 46 2 3 115 299
16	656855 5121 6063 7458 118.108340153 125.277310614 207 0 3 156 256
17	661976 18634 6058 7461 118.108340153 125.277354614 754 0 2 372 736
18	680610 5179 6066 7459 118.108340153 125.2773109509 209 0 3 349 831
19	685789 19880 6059 7462 118.108340153 125.2773549509 802 0 2 92 184
20	705669 790 6200 7463 118.133466553 125.277365614 30 31 1023 10050 6968670
22	706459 502 6055 7370 118.108340153 125.244716614 20 46 207 1225 98893
23	706961 502 6055 7370 118.108340153 125.244716614 20 46 207 1225 98893
24	707463 576 6055 7357 118.108340153 125.239403706 23 46 207 1363 105241
25	708039 576 6055 7357 118.108340153 125.239403706 23 46 207 1363 105241
26	708615 502 6058 7372 118.108340153 125.244716614 20 36 197 897 64617
27	709117 522 6058 7372 118.108340153 125.244716614 20 512 1800 11656 8353856
28	709639 1300 6058 7372 117.3 125.2 80 0 46720 116560 2829625600
29	710939 969 6058 7374 118.108340153 125.244716614 40 0 4 32 60
30	711908 1021 6058 7374 118.108340153 125.244716614 40 0 2048 17800 18839616
31	712929 2265 6058 7450 118.108340153 125.266581614 86 1 1016 35648 24656996